<?xml version="1.0" encoding="UTF-8"?>

<!-- generated on Sat Oct  9 22:48:14 2021 by Eclipse SUMO Version 1.4.0
<configuration xmlns:xsi="http://www.w3.org/2001/XMLSchema-instance" xsi:noNamespaceSchemaLocation="http://sumo.dlr.de/xsd/sumoConfiguration.xsd">

    <input>
        <net-file value="/home/jeroen/repos/sumo-web3d/sumo_web3d/server/../scenarios/cross3ltl/net.net.xml"/>
        <route-files value="/home/jeroen/repos/sumo-web3d/sumo_web3d/server/../scenarios/cross3ltl/input_routes.rou.xml"/>
    </input>

    <output>
        <fcd-output value="fcd.xml"/>
    </output>

    <processing>
        <time-to-teleport value="-1"/>
    </processing>

    <report>
        <duration-log.disable value="true"/>
        <no-step-log value="true"/>
    </report>

    <traci_server>
        <remote-port value="56461"/>
    </traci_server>

</configuration>
-->

<fcd-export xmlns:xsi="http://www.w3.org/2001/XMLSchema-instance" xsi:noNamespaceSchemaLocation="http://sumo.dlr.de/xsd/fcd_file.xsd">
    <timestep time="0.00">
        <vehicle id="always_left.0" x="501.65" y="5.10" angle="0.00" type="SUMO_DEFAULT_TYPE" speed="0.00" pos="5.10" lane="3fi_0" slope="0.00"/>
        <vehicle id="always_right.0" x="5.10" y="498.35" angle="90.00" type="SUMO_DEFAULT_TYPE" speed="0.00" pos="5.10" lane="1fi_0" slope="0.00"/>
        <vehicle id="horizontal.0" x="994.90" y="501.65" angle="270.00" type="SUMO_DEFAULT_TYPE" speed="0.00" pos="5.10" lane="2fi_0" slope="0.00"/>
    </timestep>
    <timestep time="1.00">
        <vehicle id="always_left.0" x="501.65" y="5.90" angle="0.00" type="SUMO_DEFAULT_TYPE" speed="0.80" pos="5.90" lane="3fi_0" slope="0.00"/>
        <vehicle id="always_right.0" x="5.90" y="498.35" angle="90.00" type="SUMO_DEFAULT_TYPE" speed="0.80" pos="5.90" lane="1fi_0" slope="0.00"/>
        <vehicle id="horizontal.0" x="994.10" y="501.65" angle="270.00" type="SUMO_DEFAULT_TYPE" speed="0.80" pos="5.90" lane="2fi_0" slope="0.00"/>
    </timestep>
    <timestep time="2.00">
        <vehicle id="always_left.0" x="501.65" y="7.50" angle="0.00" type="SUMO_DEFAULT_TYPE" speed="1.60" pos="7.50" lane="3fi_0" slope="0.00"/>
        <vehicle id="always_right.0" x="7.50" y="498.35" angle="90.00" type="SUMO_DEFAULT_TYPE" speed="1.60" pos="7.50" lane="1fi_0" slope="0.00"/>
        <vehicle id="horizontal.0" x="992.50" y="501.65" angle="270.00" type="SUMO_DEFAULT_TYPE" speed="1.60" pos="7.50" lane="2fi_0" slope="0.00"/>
    </timestep>
    <timestep time="3.00">
        <vehicle id="always_left.0" x="501.65" y="9.90" angle="0.00" type="SUMO_DEFAULT_TYPE" speed="2.40" pos="9.90" lane="3fi_0" slope="0.00"/>
        <vehicle id="always_right.0" x="9.90" y="498.35" angle="90.00" type="SUMO_DEFAULT_TYPE" speed="2.40" pos="9.90" lane="1fi_0" slope="0.00"/>
        <vehicle id="horizontal.0" x="990.10" y="501.65" angle="270.00" type="SUMO_DEFAULT_TYPE" speed="2.40" pos="9.90" lane="2fi_0" slope="0.00"/>
    </timestep>
    <timestep time="4.00">
        <vehicle id="always_left.0" x="501.65" y="13.10" angle="0.00" type="SUMO_DEFAULT_TYPE" speed="3.20" pos="13.10" lane="3fi_0" slope="0.00"/>
        <vehicle id="always_right.0" x="13.10" y="498.35" angle="90.00" type="SUMO_DEFAULT_TYPE" speed="3.20" pos="13.10" lane="1fi_0" slope="0.00"/>
        <vehicle id="horizontal.0" x="986.90" y="501.65" angle="270.00" type="SUMO_DEFAULT_TYPE" speed="3.20" pos="13.10" lane="2fi_0" slope="0.00"/>
        <vehicle id="vertical.0" x="501.65" y="5.10" angle="0.00" type="SUMO_DEFAULT_TYPE" speed="0.00" pos="5.10" lane="3fi_0" slope="0.00"/>
    </timestep>
    <timestep time="5.00">
        <vehicle id="always_left.0" x="501.65" y="17.10" angle="0.00" type="SUMO_DEFAULT_TYPE" speed="4.00" pos="17.10" lane="3fi_0" slope="0.00"/>
        <vehicle id="always_right.0" x="17.10" y="498.35" angle="90.00" type="SUMO_DEFAULT_TYPE" speed="4.00" pos="17.10" lane="1fi_0" slope="0.00"/>
        <vehicle id="horizontal.0" x="982.90" y="501.65" angle="270.00" type="SUMO_DEFAULT_TYPE" speed="4.00" pos="17.10" lane="2fi_0" slope="0.00"/>
        <vehicle id="vertical.0" x="501.65" y="5.90" angle="0.00" type="SUMO_DEFAULT_TYPE" speed="0.80" pos="5.90" lane="3fi_0" slope="0.00"/>
    </timestep>
    <timestep time="6.00">
        <vehicle id="always_left.0" x="501.65" y="21.90" angle="0.00" type="SUMO_DEFAULT_TYPE" speed="4.80" pos="21.90" lane="3fi_0" slope="0.00"/>
        <vehicle id="always_right.0" x="21.90" y="498.35" angle="90.00" type="SUMO_DEFAULT_TYPE" speed="4.80" pos="21.90" lane="1fi_0" slope="0.00"/>
        <vehicle id="horizontal.0" x="978.10" y="501.65" angle="270.00" type="SUMO_DEFAULT_TYPE" speed="4.80" pos="21.90" lane="2fi_0" slope="0.00"/>
        <vehicle id="vertical.0" x="501.65" y="7.50" angle="0.00" type="SUMO_DEFAULT_TYPE" speed="1.60" pos="7.50" lane="3fi_0" slope="0.00"/>
    </timestep>
    <timestep time="7.00">
        <vehicle id="always_left.0" x="501.65" y="27.50" angle="0.00" type="SUMO_DEFAULT_TYPE" speed="5.60" pos="27.50" lane="3fi_0" slope="0.00"/>
        <vehicle id="always_right.0" x="27.50" y="498.35" angle="90.00" type="SUMO_DEFAULT_TYPE" speed="5.60" pos="27.50" lane="1fi_0" slope="0.00"/>
        <vehicle id="horizontal.0" x="972.50" y="501.65" angle="270.00" type="SUMO_DEFAULT_TYPE" speed="5.60" pos="27.50" lane="2fi_0" slope="0.00"/>
        <vehicle id="vertical.0" x="501.65" y="9.90" angle="0.00" type="SUMO_DEFAULT_TYPE" speed="2.40" pos="9.90" lane="3fi_0" slope="0.00"/>
    </timestep>
    <timestep time="8.00">
        <vehicle id="always_left.0" x="501.65" y="33.90" angle="0.00" type="SUMO_DEFAULT_TYPE" speed="6.40" pos="33.90" lane="3fi_0" slope="0.00"/>
        <vehicle id="always_right.0" x="33.90" y="498.35" angle="90.00" type="SUMO_DEFAULT_TYPE" speed="6.40" pos="33.90" lane="1fi_0" slope="0.00"/>
        <vehicle id="horizontal.0" x="966.10" y="501.65" angle="270.00" type="SUMO_DEFAULT_TYPE" speed="6.40" pos="33.90" lane="2fi_0" slope="0.00"/>
        <vehicle id="vertical.0" x="501.65" y="13.10" angle="0.00" type="SUMO_DEFAULT_TYPE" speed="3.20" pos="13.10" lane="3fi_0" slope="0.00"/>
    </timestep>
    <timestep time="9.00">
        <vehicle id="always_left.0" x="501.65" y="41.10" angle="0.00" type="SUMO_DEFAULT_TYPE" speed="7.20" pos="41.10" lane="3fi_0" slope="0.00"/>
        <vehicle id="always_right.0" x="41.10" y="498.35" angle="90.00" type="SUMO_DEFAULT_TYPE" speed="7.20" pos="41.10" lane="1fi_0" slope="0.00"/>
        <vehicle id="horizontal.0" x="958.90" y="501.65" angle="270.00" type="SUMO_DEFAULT_TYPE" speed="7.20" pos="41.10" lane="2fi_0" slope="0.00"/>
        <vehicle id="vertical.0" x="501.65" y="17.10" angle="0.00" type="SUMO_DEFAULT_TYPE" speed="4.00" pos="17.10" lane="3fi_0" slope="0.00"/>
    </timestep>
    <timestep time="10.00">
        <vehicle id="always_left.0" x="501.65" y="49.10" angle="0.00" type="SUMO_DEFAULT_TYPE" speed="8.00" pos="49.10" lane="3fi_0" slope="0.00"/>
        <vehicle id="always_right.0" x="49.10" y="498.35" angle="90.00" type="SUMO_DEFAULT_TYPE" speed="8.00" pos="49.10" lane="1fi_0" slope="0.00"/>
        <vehicle id="horizontal.0" x="950.90" y="501.65" angle="270.00" type="SUMO_DEFAULT_TYPE" speed="8.00" pos="49.10" lane="2fi_0" slope="0.00"/>
        <vehicle id="vertical.0" x="501.65" y="21.90" angle="0.00" type="SUMO_DEFAULT_TYPE" speed="4.80" pos="21.90" lane="3fi_0" slope="0.00"/>
    </timestep>
    <timestep time="11.00">
        <vehicle id="always_left.0" x="501.65" y="57.90" angle="0.00" type="SUMO_DEFAULT_TYPE" speed="8.80" pos="57.90" lane="3fi_0" slope="0.00"/>
        <vehicle id="always_right.0" x="57.90" y="498.35" angle="90.00" type="SUMO_DEFAULT_TYPE" speed="8.80" pos="57.90" lane="1fi_0" slope="0.00"/>
        <vehicle id="horizontal.0" x="942.10" y="501.65" angle="270.00" type="SUMO_DEFAULT_TYPE" speed="8.80" pos="57.90" lane="2fi_0" slope="0.00"/>
        <vehicle id="vertical.0" x="501.65" y="27.50" angle="0.00" type="SUMO_DEFAULT_TYPE" speed="5.60" pos="27.50" lane="3fi_0" slope="0.00"/>
    </timestep>
    <timestep time="12.00">
        <vehicle id="always_left.0" x="501.65" y="67.50" angle="0.00" type="SUMO_DEFAULT_TYPE" speed="9.60" pos="67.50" lane="3fi_0" slope="0.00"/>
        <vehicle id="always_right.0" x="67.50" y="498.35" angle="90.00" type="SUMO_DEFAULT_TYPE" speed="9.60" pos="67.50" lane="1fi_0" slope="0.00"/>
        <vehicle id="horizontal.0" x="932.50" y="501.65" angle="270.00" type="SUMO_DEFAULT_TYPE" speed="9.60" pos="67.50" lane="2fi_0" slope="0.00"/>
        <vehicle id="vertical.0" x="501.65" y="33.90" angle="0.00" type="SUMO_DEFAULT_TYPE" speed="6.40" pos="33.90" lane="3fi_0" slope="0.00"/>
    </timestep>
    <timestep time="13.00">
        <vehicle id="always_left.0" x="501.65" y="77.90" angle="0.00" type="SUMO_DEFAULT_TYPE" speed="10.40" pos="77.90" lane="3fi_0" slope="0.00"/>
        <vehicle id="always_right.0" x="77.90" y="498.35" angle="90.00" type="SUMO_DEFAULT_TYPE" speed="10.40" pos="77.90" lane="1fi_0" slope="0.00"/>
        <vehicle id="horizontal.0" x="922.10" y="501.65" angle="270.00" type="SUMO_DEFAULT_TYPE" speed="10.40" pos="77.90" lane="2fi_0" slope="0.00"/>
        <vehicle id="vertical.0" x="501.65" y="41.10" angle="0.00" type="SUMO_DEFAULT_TYPE" speed="7.20" pos="41.10" lane="3fi_0" slope="0.00"/>
    </timestep>
    <timestep time="14.00">
        <vehicle id="always_left.0" x="501.65" y="88.32" angle="0.00" type="SUMO_DEFAULT_TYPE" speed="10.42" pos="88.32" lane="3fi_0" slope="0.00"/>
        <vehicle id="always_right.0" x="89.10" y="498.35" angle="90.00" type="SUMO_DEFAULT_TYPE" speed="11.20" pos="89.10" lane="1fi_0" slope="0.00"/>
        <vehicle id="horizontal.0" x="910.90" y="501.65" angle="270.00" type="SUMO_DEFAULT_TYPE" speed="11.20" pos="89.10" lane="2fi_0" slope="0.00"/>
        <vehicle id="vertical.0" x="501.65" y="49.10" angle="0.00" type="SUMO_DEFAULT_TYPE" speed="8.00" pos="49.10" lane="3fi_0" slope="0.00"/>
    </timestep>
    <timestep time="15.00">
        <vehicle id="always_left.0" x="501.65" y="98.75" angle="0.00" type="SUMO_DEFAULT_TYPE" speed="10.42" pos="98.75" lane="3fi_0" slope="0.00"/>
        <vehicle id="always_right.0" x="100.88" y="498.35" angle="90.00" type="SUMO_DEFAULT_TYPE" speed="11.78" pos="100.88" lane="1fi_0" slope="0.00"/>
        <vehicle id="horizontal.0" x="899.67" y="501.65" angle="270.00" type="SUMO_DEFAULT_TYPE" speed="11.23" pos="100.33" lane="2fi_0" slope="0.00"/>
        <vehicle id="vertical.0" x="501.65" y="57.90" angle="0.00" type="SUMO_DEFAULT_TYPE" speed="8.80" pos="57.90" lane="3fi_0" slope="0.00"/>
    </timestep>
    <timestep time="16.00">
        <vehicle id="always_left.0" x="501.65" y="109.17" angle="0.00" type="SUMO_DEFAULT_TYPE" speed="10.42" pos="109.17" lane="3fi_0" slope="0.00"/>
        <vehicle id="always_right.0" x="112.65" y="498.35" angle="90.00" type="SUMO_DEFAULT_TYPE" speed="11.78" pos="112.65" lane="1fi_0" slope="0.00"/>
        <vehicle id="horizontal.0" x="888.45" y="501.65" angle="270.00" type="SUMO_DEFAULT_TYPE" speed="11.23" pos="111.55" lane="2fi_0" slope="0.00"/>
        <vehicle id="vertical.0" x="501.65" y="67.50" angle="0.00" type="SUMO_DEFAULT_TYPE" speed="9.60" pos="67.50" lane="3fi_0" slope="0.00"/>
    </timestep>
    <timestep time="17.00">
        <vehicle id="always_left.0" x="501.65" y="119.60" angle="0.00" type="SUMO_DEFAULT_TYPE" speed="10.42" pos="119.60" lane="3fi_0" slope="0.00"/>
        <vehicle id="always_right.0" x="124.43" y="498.35" angle="90.00" type="SUMO_DEFAULT_TYPE" speed="11.78" pos="124.43" lane="1fi_0" slope="0.00"/>
        <vehicle id="horizontal.0" x="877.22" y="501.65" angle="270.00" type="SUMO_DEFAULT_TYPE" speed="11.23" pos="122.78" lane="2fi_0" slope="0.00"/>
        <vehicle id="vertical.0" x="501.65" y="77.90" angle="0.00" type="SUMO_DEFAULT_TYPE" speed="10.40" pos="77.90" lane="3fi_0" slope="0.00"/>
    </timestep>
    <timestep time="18.00">
        <vehicle id="always_left.0" x="501.65" y="130.02" angle="0.00" type="SUMO_DEFAULT_TYPE" speed="10.42" pos="130.02" lane="3fi_0" slope="0.00"/>
        <vehicle id="always_right.0" x="136.21" y="498.35" angle="90.00" type="SUMO_DEFAULT_TYPE" speed="11.78" pos="136.21" lane="1fi_0" slope="0.00"/>
        <vehicle id="horizontal.0" x="866.00" y="501.65" angle="270.00" type="SUMO_DEFAULT_TYPE" speed="11.23" pos="134.00" lane="2fi_0" slope="0.00"/>
        <vehicle id="vertical.0" x="501.65" y="89.10" angle="0.00" type="SUMO_DEFAULT_TYPE" speed="11.20" pos="89.10" lane="3fi_0" slope="0.00"/>
    </timestep>
    <timestep time="19.00">
        <vehicle id="always_left.0" x="501.65" y="140.45" angle="0.00" type="SUMO_DEFAULT_TYPE" speed="10.42" pos="140.45" lane="3fi_0" slope="0.00"/>
        <vehicle id="always_right.0" x="147.98" y="498.35" angle="90.00" type="SUMO_DEFAULT_TYPE" speed="11.78" pos="147.98" lane="1fi_0" slope="0.00"/>
        <vehicle id="horizontal.0" x="854.77" y="501.65" angle="270.00" type="SUMO_DEFAULT_TYPE" speed="11.23" pos="145.23" lane="2fi_0" slope="0.00"/>
        <vehicle id="vertical.0" x="501.65" y="101.10" angle="0.00" type="SUMO_DEFAULT_TYPE" speed="12.00" pos="101.10" lane="3fi_0" slope="0.00"/>
    </timestep>
    <timestep time="20.00">
        <vehicle id="always_left.0" x="501.65" y="150.87" angle="0.00" type="SUMO_DEFAULT_TYPE" speed="10.42" pos="150.87" lane="3fi_0" slope="0.00"/>
        <vehicle id="always_right.0" x="159.76" y="498.35" angle="90.00" type="SUMO_DEFAULT_TYPE" speed="11.78" pos="159.76" lane="1fi_0" slope="0.00"/>
        <vehicle id="horizontal.0" x="843.55" y="501.65" angle="270.00" type="SUMO_DEFAULT_TYPE" speed="11.23" pos="156.45" lane="2fi_0" slope="0.00"/>
        <vehicle id="vertical.0" x="501.65" y="113.13" angle="0.00" type="SUMO_DEFAULT_TYPE" speed="12.03" pos="113.13" lane="3fi_0" slope="0.00"/>
    </timestep>
    <timestep time="21.00">
        <vehicle id="always_left.0" x="501.65" y="161.30" angle="0.00" type="SUMO_DEFAULT_TYPE" speed="10.42" pos="161.30" lane="3fi_0" slope="0.00"/>
        <vehicle id="always_right.0" x="171.53" y="498.35" angle="90.00" type="SUMO_DEFAULT_TYPE" speed="11.78" pos="171.53" lane="1fi_0" slope="0.00"/>
        <vehicle id="horizontal.0" x="832.32" y="501.65" angle="270.00" type="SUMO_DEFAULT_TYPE" speed="11.23" pos="167.68" lane="2fi_0" slope="0.00"/>
        <vehicle id="vertical.0" x="501.65" y="125.16" angle="0.00" type="SUMO_DEFAULT_TYPE" speed="12.03" pos="125.16" lane="3fi_0" slope="0.00"/>
    </timestep>
    <timestep time="22.00">
        <vehicle id="always_left.0" x="501.65" y="171.72" angle="0.00" type="SUMO_DEFAULT_TYPE" speed="10.42" pos="171.72" lane="3fi_0" slope="0.00"/>
        <vehicle id="always_right.0" x="183.31" y="498.35" angle="90.00" type="SUMO_DEFAULT_TYPE" speed="11.78" pos="183.31" lane="1fi_0" slope="0.00"/>
        <vehicle id="horizontal.0" x="821.10" y="501.65" angle="270.00" type="SUMO_DEFAULT_TYPE" speed="11.23" pos="178.90" lane="2fi_0" slope="0.00"/>
        <vehicle id="vertical.0" x="501.65" y="137.19" angle="0.00" type="SUMO_DEFAULT_TYPE" speed="12.03" pos="137.19" lane="3fi_0" slope="0.00"/>
    </timestep>
    <timestep time="23.00">
        <vehicle id="always_left.0" x="501.65" y="182.15" angle="0.00" type="SUMO_DEFAULT_TYPE" speed="10.42" pos="182.15" lane="3fi_0" slope="0.00"/>
        <vehicle id="always_right.0" x="195.09" y="498.35" angle="90.00" type="SUMO_DEFAULT_TYPE" speed="11.78" pos="195.09" lane="1fi_0" slope="0.00"/>
        <vehicle id="horizontal.0" x="809.87" y="501.65" angle="270.00" type="SUMO_DEFAULT_TYPE" speed="11.23" pos="190.13" lane="2fi_0" slope="0.00"/>
        <vehicle id="vertical.0" x="501.65" y="149.21" angle="0.00" type="SUMO_DEFAULT_TYPE" speed="12.03" pos="149.21" lane="3fi_0" slope="0.00"/>
    </timestep>
    <timestep time="24.00">
        <vehicle id="always_left.0" x="501.65" y="192.57" angle="0.00" type="SUMO_DEFAULT_TYPE" speed="10.42" pos="192.57" lane="3fi_0" slope="0.00"/>
        <vehicle id="always_right.0" x="206.86" y="498.35" angle="90.00" type="SUMO_DEFAULT_TYPE" speed="11.78" pos="206.86" lane="1fi_0" slope="0.00"/>
        <vehicle id="horizontal.0" x="798.65" y="501.65" angle="270.00" type="SUMO_DEFAULT_TYPE" speed="11.23" pos="201.35" lane="2fi_0" slope="0.00"/>
        <vehicle id="vertical.0" x="501.65" y="161.24" angle="0.00" type="SUMO_DEFAULT_TYPE" speed="12.03" pos="161.24" lane="3fi_0" slope="0.00"/>
    </timestep>
    <timestep time="25.00">
        <vehicle id="always_left.0" x="501.65" y="202.99" angle="0.00" type="SUMO_DEFAULT_TYPE" speed="10.42" pos="202.99" lane="3fi_0" slope="0.00"/>
        <vehicle id="always_right.0" x="218.64" y="498.35" angle="90.00" type="SUMO_DEFAULT_TYPE" speed="11.78" pos="218.64" lane="1fi_0" slope="0.00"/>
        <vehicle id="horizontal.0" x="787.42" y="501.65" angle="270.00" type="SUMO_DEFAULT_TYPE" speed="11.23" pos="212.58" lane="2fi_0" slope="0.00"/>
        <vehicle id="vertical.0" x="501.65" y="173.27" angle="0.00" type="SUMO_DEFAULT_TYPE" speed="12.03" pos="173.27" lane="3fi_0" slope="0.00"/>
    </timestep>
    <timestep time="26.00">
        <vehicle id="always_left.0" x="501.65" y="213.42" angle="0.00" type="SUMO_DEFAULT_TYPE" speed="10.42" pos="213.42" lane="3fi_0" slope="0.00"/>
        <vehicle id="always_right.0" x="230.42" y="498.35" angle="90.00" type="SUMO_DEFAULT_TYPE" speed="11.78" pos="230.42" lane="1fi_0" slope="0.00"/>
        <vehicle id="horizontal.0" x="776.19" y="501.65" angle="270.00" type="SUMO_DEFAULT_TYPE" speed="11.23" pos="223.81" lane="2fi_0" slope="0.00"/>
        <vehicle id="vertical.0" x="501.65" y="185.30" angle="0.00" type="SUMO_DEFAULT_TYPE" speed="12.03" pos="185.30" lane="3fi_0" slope="0.00"/>
    </timestep>
    <timestep time="27.00">
        <vehicle id="always_left.0" x="501.65" y="223.84" angle="0.00" type="SUMO_DEFAULT_TYPE" speed="10.42" pos="223.84" lane="3fi_0" slope="0.00"/>
        <vehicle id="always_right.0" x="242.19" y="498.35" angle="90.00" type="SUMO_DEFAULT_TYPE" speed="11.78" pos="242.19" lane="1fi_0" slope="0.00"/>
        <vehicle id="horizontal.0" x="764.97" y="501.65" angle="270.00" type="SUMO_DEFAULT_TYPE" speed="11.23" pos="235.03" lane="2fi_0" slope="0.00"/>
        <vehicle id="vertical.0" x="501.65" y="197.33" angle="0.00" type="SUMO_DEFAULT_TYPE" speed="12.03" pos="197.33" lane="3fi_0" slope="0.00"/>
    </timestep>
    <timestep time="28.00">
        <vehicle id="always_left.0" x="501.65" y="234.27" angle="0.00" type="SUMO_DEFAULT_TYPE" speed="10.42" pos="234.27" lane="3fi_0" slope="0.00"/>
        <vehicle id="always_right.0" x="252.07" y="498.35" angle="90.00" type="SUMO_DEFAULT_TYPE" speed="11.78" pos="0.57" lane="1si_2" slope="0.00"/>
        <vehicle id="horizontal.0" x="753.74" y="501.65" angle="270.00" type="SUMO_DEFAULT_TYPE" speed="11.23" pos="246.26" lane="2fi_0" slope="0.00"/>
        <vehicle id="vertical.0" x="501.65" y="209.36" angle="0.00" type="SUMO_DEFAULT_TYPE" speed="12.03" pos="209.36" lane="3fi_0" slope="0.00"/>
    </timestep>
    <timestep time="29.00">
        <vehicle id="always_left.0" x="501.65" y="244.69" angle="0.00" type="SUMO_DEFAULT_TYPE" speed="10.42" pos="244.69" lane="3fi_0" slope="0.00"/>
        <vehicle id="always_right.0" x="264.65" y="498.35" angle="90.00" type="SUMO_DEFAULT_TYPE" speed="12.58" pos="13.15" lane="1si_2" slope="0.00"/>
        <vehicle id="horizontal.0" x="744.42" y="504.95" angle="277.58" type="SUMO_DEFAULT_TYPE" speed="11.23" pos="4.08" lane="2si_1" slope="0.00"/>
        <vehicle id="vertical.0" x="501.65" y="221.38" angle="0.00" type="SUMO_DEFAULT_TYPE" speed="12.03" pos="221.38" lane="3fi_0" slope="0.00"/>
    </timestep>
    <timestep time="30.00">
        <vehicle id="always_left.0" x="508.25" y="253.22" angle="49.87" type="SUMO_DEFAULT_TYPE" speed="10.42" pos="1.72" lane="3si_0" slope="0.00"/>
        <vehicle id="always_left.1" x="501.65" y="5.10" angle="0.00" type="SUMO_DEFAULT_TYPE" speed="0.00" pos="5.10" lane="3fi_0" slope="0.00"/>
        <vehicle id="always_right.0" x="278.02" y="498.35" angle="90.00" type="SUMO_DEFAULT_TYPE" speed="13.38" pos="26.52" lane="1si_2" slope="0.00"/>
        <vehicle id="always_right.1" x="5.10" y="498.35" angle="90.00" type="SUMO_DEFAULT_TYPE" speed="0.00" pos="5.10" lane="1fi_0" slope="0.00"/>
        <vehicle id="horizontal.0" x="732.39" y="504.95" angle="270.00" type="SUMO_DEFAULT_TYPE" speed="12.03" pos="16.11" lane="2si_1" slope="0.00"/>
        <vehicle id="horizontal.1" x="994.90" y="501.65" angle="270.00" type="SUMO_DEFAULT_TYPE" speed="0.00" pos="5.10" lane="2fi_0" slope="0.00"/>
        <vehicle id="vertical.0" x="501.65" y="233.41" angle="0.00" type="SUMO_DEFAULT_TYPE" speed="12.03" pos="233.41" lane="3fi_0" slope="0.00"/>
    </timestep>
    <timestep time="31.00">
        <vehicle id="always_left.0" x="508.25" y="264.44" angle="0.00" type="SUMO_DEFAULT_TYPE" speed="11.22" pos="12.94" lane="3si_0" slope="0.00"/>
        <vehicle id="always_left.1" x="501.65" y="5.90" angle="0.00" type="SUMO_DEFAULT_TYPE" speed="0.80" pos="5.90" lane="3fi_0" slope="0.00"/>
        <vehicle id="always_right.0" x="292.20" y="498.35" angle="90.00" type="SUMO_DEFAULT_TYPE" speed="14.18" pos="40.70" lane="1si_2" slope="0.00"/>
        <vehicle id="always_right.1" x="5.90" y="498.35" angle="90.00" type="SUMO_DEFAULT_TYPE" speed="0.80" pos="5.90" lane="1fi_0" slope="0.00"/>
        <vehicle id="horizontal.0" x="719.57" y="504.95" angle="270.00" type="SUMO_DEFAULT_TYPE" speed="12.83" pos="28.93" lane="2si_1" slope="0.00"/>
        <vehicle id="horizontal.1" x="994.10" y="501.65" angle="270.00" type="SUMO_DEFAULT_TYPE" speed="0.80" pos="5.90" lane="2fi_0" slope="0.00"/>
        <vehicle id="vertical.0" x="501.65" y="245.26" angle="0.00" type="SUMO_DEFAULT_TYPE" speed="11.85" pos="245.26" lane="3fi_0" slope="0.00"/>
    </timestep>
    <timestep time="32.00">
        <vehicle id="always_left.0" x="508.25" y="276.47" angle="0.00" type="SUMO_DEFAULT_TYPE" speed="12.02" pos="24.97" lane="3si_0" slope="0.00"/>
        <vehicle id="always_left.1" x="501.65" y="7.50" angle="0.00" type="SUMO_DEFAULT_TYPE" speed="1.60" pos="7.50" lane="3fi_0" slope="0.00"/>
        <vehicle id="always_right.0" x="306.92" y="498.35" angle="90.00" type="SUMO_DEFAULT_TYPE" speed="14.72" pos="55.42" lane="1si_2" slope="0.00"/>
        <vehicle id="always_right.1" x="7.50" y="498.35" angle="90.00" type="SUMO_DEFAULT_TYPE" speed="1.60" pos="7.50" lane="1fi_0" slope="0.00"/>
        <vehicle id="horizontal.0" x="705.94" y="504.95" angle="270.00" type="SUMO_DEFAULT_TYPE" speed="13.63" pos="42.56" lane="2si_1" slope="0.00"/>
        <vehicle id="horizontal.1" x="992.50" y="501.65" angle="270.00" type="SUMO_DEFAULT_TYPE" speed="1.60" pos="7.50" lane="2fi_0" slope="0.00"/>
        <vehicle id="vertical.0" x="504.95" y="255.39" angle="9.27" type="SUMO_DEFAULT_TYPE" speed="12.03" pos="3.89" lane="3si_1" slope="0.00"/>
    </timestep>
    <timestep time="33.00">
        <vehicle id="always_left.0" x="508.25" y="289.29" angle="0.00" type="SUMO_DEFAULT_TYPE" speed="12.82" pos="37.79" lane="3si_0" slope="0.00"/>
        <vehicle id="always_left.1" x="501.65" y="9.90" angle="0.00" type="SUMO_DEFAULT_TYPE" speed="2.40" pos="9.90" lane="3fi_0" slope="0.00"/>
        <vehicle id="always_right.0" x="321.64" y="498.35" angle="90.00" type="SUMO_DEFAULT_TYPE" speed="14.72" pos="70.14" lane="1si_2" slope="0.00"/>
        <vehicle id="always_right.1" x="9.90" y="498.35" angle="90.00" type="SUMO_DEFAULT_TYPE" speed="2.40" pos="9.90" lane="1fi_0" slope="0.00"/>
        <vehicle id="horizontal.0" x="691.91" y="504.95" angle="270.00" type="SUMO_DEFAULT_TYPE" speed="14.03" pos="56.59" lane="2si_1" slope="0.00"/>
        <vehicle id="horizontal.1" x="990.10" y="501.65" angle="270.00" type="SUMO_DEFAULT_TYPE" speed="2.40" pos="9.90" lane="2fi_0" slope="0.00"/>
        <vehicle id="vertical.0" x="504.95" y="268.22" angle="0.00" type="SUMO_DEFAULT_TYPE" speed="12.83" pos="16.72" lane="3si_1" slope="0.00"/>
    </timestep>
    <timestep time="34.00">
        <vehicle id="always_left.0" x="508.25" y="302.32" angle="0.00" type="SUMO_DEFAULT_TYPE" speed="13.03" pos="50.82" lane="3si_0" slope="0.00"/>
        <vehicle id="always_left.1" x="501.65" y="13.10" angle="0.00" type="SUMO_DEFAULT_TYPE" speed="3.20" pos="13.10" lane="3fi_0" slope="0.00"/>
        <vehicle id="always_right.0" x="336.37" y="498.35" angle="90.00" type="SUMO_DEFAULT_TYPE" speed="14.72" pos="84.87" lane="1si_2" slope="0.00"/>
        <vehicle id="always_right.1" x="13.10" y="498.35" angle="90.00" type="SUMO_DEFAULT_TYPE" speed="3.20" pos="13.10" lane="1fi_0" slope="0.00"/>
        <vehicle id="horizontal.0" x="677.87" y="504.95" angle="270.00" type="SUMO_DEFAULT_TYPE" speed="14.03" pos="70.63" lane="2si_1" slope="0.00"/>
        <vehicle id="horizontal.1" x="986.90" y="501.65" angle="270.00" type="SUMO_DEFAULT_TYPE" speed="3.20" pos="13.10" lane="2fi_0" slope="0.00"/>
        <vehicle id="vertical.0" x="504.95" y="281.85" angle="0.00" type="SUMO_DEFAULT_TYPE" speed="13.63" pos="30.35" lane="3si_1" slope="0.00"/>
        <vehicle id="vertical.1" x="501.65" y="5.10" angle="0.00" type="SUMO_DEFAULT_TYPE" speed="0.00" pos="5.10" lane="3fi_0" slope="0.00"/>
    </timestep>
    <timestep time="35.00">
        <vehicle id="always_left.0" x="508.25" y="315.36" angle="0.00" type="SUMO_DEFAULT_TYPE" speed="13.03" pos="63.86" lane="3si_0" slope="0.00"/>
        <vehicle id="always_left.1" x="501.65" y="17.10" angle="0.00" type="SUMO_DEFAULT_TYPE" speed="4.00" pos="17.10" lane="3fi_0" slope="0.00"/>
        <vehicle id="always_right.0" x="351.09" y="498.35" angle="90.00" type="SUMO_DEFAULT_TYPE" speed="14.72" pos="99.59" lane="1si_2" slope="0.00"/>
        <vehicle id="always_right.1" x="17.10" y="498.35" angle="90.00" type="SUMO_DEFAULT_TYPE" speed="4.00" pos="17.10" lane="1fi_0" slope="0.00"/>
        <vehicle id="horizontal.0" x="663.84" y="504.95" angle="270.00" type="SUMO_DEFAULT_TYPE" speed="14.03" pos="84.66" lane="2si_1" slope="0.00"/>
        <vehicle id="horizontal.1" x="982.90" y="501.65" angle="270.00" type="SUMO_DEFAULT_TYPE" speed="4.00" pos="17.10" lane="2fi_0" slope="0.00"/>
        <vehicle id="vertical.0" x="504.95" y="296.28" angle="0.00" type="SUMO_DEFAULT_TYPE" speed="14.43" pos="44.78" lane="3si_1" slope="0.00"/>
        <vehicle id="vertical.1" x="501.65" y="5.90" angle="0.00" type="SUMO_DEFAULT_TYPE" speed="0.80" pos="5.90" lane="3fi_0" slope="0.00"/>
    </timestep>
    <timestep time="36.00">
        <vehicle id="always_left.0" x="508.25" y="328.39" angle="0.00" type="SUMO_DEFAULT_TYPE" speed="13.03" pos="76.89" lane="3si_0" slope="0.00"/>
        <vehicle id="always_left.1" x="501.65" y="21.90" angle="0.00" type="SUMO_DEFAULT_TYPE" speed="4.80" pos="21.90" lane="3fi_0" slope="0.00"/>
        <vehicle id="always_right.0" x="365.81" y="498.35" angle="90.00" type="SUMO_DEFAULT_TYPE" speed="14.72" pos="114.31" lane="1si_2" slope="0.00"/>
        <vehicle id="always_right.1" x="21.90" y="498.35" angle="90.00" type="SUMO_DEFAULT_TYPE" speed="4.80" pos="21.90" lane="1fi_0" slope="0.00"/>
        <vehicle id="horizontal.0" x="649.80" y="504.95" angle="270.00" type="SUMO_DEFAULT_TYPE" speed="14.03" pos="98.70" lane="2si_1" slope="0.00"/>
        <vehicle id="horizontal.1" x="978.10" y="501.65" angle="270.00" type="SUMO_DEFAULT_TYPE" speed="4.80" pos="21.90" lane="2fi_0" slope="0.00"/>
        <vehicle id="vertical.0" x="504.95" y="311.32" angle="0.00" type="SUMO_DEFAULT_TYPE" speed="15.04" pos="59.82" lane="3si_1" slope="0.00"/>
        <vehicle id="vertical.1" x="501.65" y="7.50" angle="0.00" type="SUMO_DEFAULT_TYPE" speed="1.60" pos="7.50" lane="3fi_0" slope="0.00"/>
    </timestep>
    <timestep time="37.00">
        <vehicle id="always_left.0" x="508.25" y="341.42" angle="0.00" type="SUMO_DEFAULT_TYPE" speed="13.03" pos="89.92" lane="3si_0" slope="0.00"/>
        <vehicle id="always_left.1" x="501.65" y="27.50" angle="0.00" type="SUMO_DEFAULT_TYPE" speed="5.60" pos="27.50" lane="3fi_0" slope="0.00"/>
        <vehicle id="always_right.0" x="380.54" y="498.35" angle="90.00" type="SUMO_DEFAULT_TYPE" speed="14.72" pos="129.04" lane="1si_2" slope="0.00"/>
        <vehicle id="always_right.1" x="27.50" y="498.35" angle="90.00" type="SUMO_DEFAULT_TYPE" speed="5.60" pos="27.50" lane="1fi_0" slope="0.00"/>
        <vehicle id="horizontal.0" x="635.77" y="504.95" angle="270.00" type="SUMO_DEFAULT_TYPE" speed="14.03" pos="112.73" lane="2si_1" slope="0.00"/>
        <vehicle id="horizontal.1" x="972.50" y="501.65" angle="270.00" type="SUMO_DEFAULT_TYPE" speed="5.60" pos="27.50" lane="2fi_0" slope="0.00"/>
        <vehicle id="vertical.0" x="504.95" y="326.35" angle="0.00" type="SUMO_DEFAULT_TYPE" speed="15.04" pos="74.85" lane="3si_1" slope="0.00"/>
        <vehicle id="vertical.1" x="501.65" y="9.90" angle="0.00" type="SUMO_DEFAULT_TYPE" speed="2.40" pos="9.90" lane="3fi_0" slope="0.00"/>
    </timestep>
    <timestep time="38.00">
        <vehicle id="always_left.0" x="508.25" y="354.46" angle="0.00" type="SUMO_DEFAULT_TYPE" speed="13.03" pos="102.96" lane="3si_0" slope="0.00"/>
        <vehicle id="always_left.1" x="501.65" y="33.90" angle="0.00" type="SUMO_DEFAULT_TYPE" speed="6.40" pos="33.90" lane="3fi_0" slope="0.00"/>
        <vehicle id="always_right.0" x="395.26" y="498.35" angle="90.00" type="SUMO_DEFAULT_TYPE" speed="14.72" pos="143.76" lane="1si_2" slope="0.00"/>
        <vehicle id="always_right.1" x="33.90" y="498.35" angle="90.00" type="SUMO_DEFAULT_TYPE" speed="6.40" pos="33.90" lane="1fi_0" slope="0.00"/>
        <vehicle id="horizontal.0" x="621.74" y="504.95" angle="270.00" type="SUMO_DEFAULT_TYPE" speed="14.03" pos="126.76" lane="2si_1" slope="0.00"/>
        <vehicle id="horizontal.1" x="966.10" y="501.65" angle="270.00" type="SUMO_DEFAULT_TYPE" speed="6.40" pos="33.90" lane="2fi_0" slope="0.00"/>