<?xml version="1.0" encoding="UTF-8"?>

<!-- generated on Mon Oct 11 22:52:35 2021 by Eclipse SUMO Version 1.4.0
<configuration xmlns:xsi="http://www.w3.org/2001/XMLSchema-instance" xsi:noNamespaceSchemaLocation="http://sumo.dlr.de/xsd/sumoConfiguration.xsd">

    <input>
        <net-file value="/home/jeroen/repos/sumo-web3d/sumo_web3d/server/../scenarios/bologna-acosta/joined_buslanes.net.xml"/>
        <route-files value="/home/jeroen/repos/sumo-web3d/sumo_web3d/server/../scenarios/bologna-acosta/joined.rou.xml,/home/jeroen/repos/sumo-web3d/sumo_web3d/server/../scenarios/bologna-acosta/joined_busses.rou.xml"/>
        <additional-files value="/home/jeroen/repos/sumo-web3d/sumo_web3d/server/../scenarios/bologna-acosta/joined_bus_stops.add.xml,/home/jeroen/repos/sumo-web3d/sumo_web3d/server/../scenarios/bologna-acosta/joined_detectors.add.xml,/home/jeroen/repos/sumo-web3d/sumo_web3d/server/../scenarios/bologna-acosta/joined_vtypes.add.xml,/home/jeroen/repos/sumo-web3d/sumo_web3d/server/../scenarios/bologna-acosta/joined_tls.add.xml,/home/jeroen/repos/sumo-web3d/sumo_web3d/server/../scenarios/bologna-acosta/acosta-poly.xml"/>
    </input>

    <output>
        <tripinfo-output value="/home/jeroen/repos/sumo-web3d/sumo_web3d/server/../scenarios/bologna-acosta/tripinfos.xml"/>
        <save-state.prefix value="/home/jeroen/repos/sumo-web3d/sumo_web3d/server/../scenarios/bologna-acosta/state"/>
    </output>

    <report>
        <log value="/home/jeroen/repos/sumo-web3d/sumo_web3d/server/../scenarios/bologna-acosta/sumo_log.txt"/>
        <no-step-log value="true"/>
    </report>

    <emissions>
        <phemlight-path value="/home/jeroen/repos/sumo-web3d/sumo_web3d/server/../scenarios/bologna-acosta/./PHEMlight/"/>
    </emissions>

    <traci_server>
        <remote-port value="41929"/>
    </traci_server>

</configuration>
-->

<tripinfos xmlns:xsi="http://www.w3.org/2001/XMLSchema-instance" xsi:noNamespaceSchemaLocation="http://sumo.dlr.de/xsd/tripinfo_file.xsd">
</tripinfos>
